================================================================================
| EXCITING NITROGEN-14 started                                                 =
|                                                                              =
| MPI version using     24 processor(s)                                        =
|                                                                              =
| Date (DD-MM-YYYY) : 12-08-2022                                               =
| Time (hh:mm:ss)   : 03:47:08                                                 =
|                                                                              =
| All units are atomic (Hartree, Bohr, etc.)                                   =
================================================================================
 
********************************************************************************
* Ground-state run starting from atomic densities                              *
********************************************************************************
 
++++++++++++++++++++++++++++++++++++++++++++++++++++++++++++++++++++++++++++++++
+ Starting initialization                                                      +
++++++++++++++++++++++++++++++++++++++++++++++++++++++++++++++++++++++++++++++++
 
 Lattice vectors (cartesian) :
      0.0000000000      4.7918548177      4.7918548177
      4.7918548177      0.0000000000      4.7918548177
      4.7918548177      4.7918548177      0.0000000000
 
 Reciprocal lattice vectors (cartesian) :
     -0.6556109843      0.6556109843      0.6556109843
      0.6556109843     -0.6556109843      0.6556109843
      0.6556109843      0.6556109843     -0.6556109843
 
 Unit cell volume                           :     220.0599196226
 Brillouin zone volume                      :       1.1271939655
 
 Species :    1 (Zr)
     parameters loaded from                 :    Zr.xml
     name                                   :    zirconium
     nuclear charge                         :     -40.00000000
     electronic charge                      :      40.00000000
     atomic mass                            :  166291.17910000
     muffin-tin radius                      :       2.00000000
     # of radial points in muffin-tin       :     600
 
     atomic positions (lattice) :
       1 :   0.00000000  0.00000000  0.00000000
 
 Species :    2 (O)
     parameters loaded from                 :    O.xml
     name                                   :    oxygen
     nuclear charge                         :      -8.00000000
     electronic charge                      :       8.00000000
     atomic mass                            :   29165.12203000
     muffin-tin radius                      :       1.60000000
     # of radial points in muffin-tin       :     600
 
     atomic positions (lattice) :
       1 :   0.25000000  0.25000000  0.25000000
       2 :   0.75000000  0.75000000  0.75000000
 
 Total number of atoms per unit cell        :       3
 
 Spin treatment                             :    spin-unpolarised
 
 Number of Bravais lattice symmetries       :      48
 Number of crystal symmetries               :      48
 
 k-point grid                               :       6    6    6
 Total number of k-points                   :      16
 k-point set is reduced with crystal symmetries
 
 R^MT_min * |G+k|_max (rgkmax)              :       8.00000000
 Species with R^MT_min                      :       2 (O)
 Maximum |G+k| for APW functions            :       5.00000000
 Maximum |G| for potential and density      :      20.00000000
 
 G-vector grid sizes                        :      45    45    45
 Total number of G-vectors                  :   29627
 
 Maximum angular momentum used for
     APW functions                          :       8
     computing H and O matrix elements      :       8
     potential and density                  :       8
     inner part of muffin-tin               :       2
 
 Total nuclear charge                       :     -56.00000000
 Total electronic charge                    :      56.00000000
 Total core charge                          :      14.00000000
 Total valence charge                       :      42.00000000
 
 Number of empty states                     :       5
 Total number of valence states             :      27
 
 Maximum Hamiltonian size                   :    1232
 Maximum number of plane-waves              :     483
 Total number of local-orbitals             :     749
 
 Exchange-correlation type                  :      22
     PBEsol, Phys. Rev. Lett. 100, 136406 (2008)
     Generalised gradient approximation (GGA)
 
 Smearing scheme                            :    Gaussian
 Smearing width                             :       0.00100000
 
 Using multisecant Broyden potential mixing
 
++++++++++++++++++++++++++++++++++++++++++++++++++++++++++++++++++++++++++++++++
+ Ending initialization                                                        +
++++++++++++++++++++++++++++++++++++++++++++++++++++++++++++++++++++++++++++++++
 
********************************************************************************
* Groundstate module started                                                   *
********************************************************************************
 Output level for this task is set to normal
 
++++++++++++++++++++++++++++++++++++++++++++++++++++++++++++++++++++++++++++++++
+ Self-consistent loop started                                                 +
++++++++++++++++++++++++++++++++++++++++++++++++++++++++++++++++++++++++++++++++
 Density and potential initialised from atomic data
 
 
++++++++++++++++++++++++++++++++++++++++++++++++++++++++++++++++++++++++++++++++
+ SCF iteration number :    1                                                  +
++++++++++++++++++++++++++++++++++++++++++++++++++++++++++++++++++++++++++++++++
 Total energy                               :     -3743.32886515
 _______________________________________________________________
 Fermi energy                               :         0.33572236
 Kinetic energy                             :      3867.75333743
 Coulomb energy                             :     -7481.72388349
 Exchange energy                            :      -126.38710087
 Correlation energy                         :        -2.97121822
 
 DOS at Fermi energy (states/Ha/cell)       :         0.00000000
 
 Electron charges :
     core                                   :        14.00000000
     core leakage                           :         0.00000023
     valence                                :        42.00000000
     interstitial                           :         4.64567311
     charge in muffin-tin spheres :
                  atom     1    Zr          :        35.78532195
                  atom     2     O          :         7.78450247
                  atom     3     O          :         7.78450247
     total charge in muffin-tins            :        51.35432689
     total charge                           :        56.00000000
 
 Estimated fundamental gap                  :         0.25261376
        valence-band maximum at   13      0.5000  0.5000  0.0000
     conduction-band minimum at   13      0.5000  0.5000  0.0000
 
 Wall time (seconds)                        :        47.78
 
++++++++++++++++++++++++++++++++++++++++++++++++++++++++++++++++++++++++++++++++
+ SCF iteration number :    2                                                  +
++++++++++++++++++++++++++++++++++++++++++++++++++++++++++++++++++++++++++++++++
 Total energy                               :     -3746.82516489
 _______________________________________________________________
 Fermi energy                               :         0.37709947
 Kinetic energy                             :      3863.81465367
 Coulomb energy                             :     -7481.61574640
 Exchange energy                            :      -126.04331633
 Correlation energy                         :        -2.98075583
 
 DOS at Fermi energy (states/Ha/cell)       :         0.00000000
 
 Electron charges :
     core                                   :        14.00000000
     core leakage                           :         0.00000024
     valence                                :        42.00000000
     interstitial                           :         5.14357939
     charge in muffin-tin spheres :
                  atom     1    Zr          :        36.08920659
                  atom     2     O          :         7.38360701
                  atom     3     O          :         7.38360701
     total charge in muffin-tins            :        50.85642061
     total charge                           :        56.00000000
 
 Estimated fundamental gap                  :         0.16140196
        valence-band maximum at   13      0.5000  0.5000  0.0000
     conduction-band minimum at    1      0.0000  0.0000  0.0000
 
 Wall time (seconds)                        :        76.89
 
 RMS change in effective potential (target) :  0.251372      ( 0.100000E-05)
 Absolute change in total energy   (target) :   3.49630      ( 0.100000E-05)
 Charge distance                   (target) :  0.290048E-01  ( 0.100000E-04)
 
++++++++++++++++++++++++++++++++++++++++++++++++++++++++++++++++++++++++++++++++
+ SCF iteration number :    3                                                  +
++++++++++++++++++++++++++++++++++++++++++++++++++++++++++++++++++++++++++++++++
 Total energy                               :     -3748.10398518
 _______________________________________________________________
 Fermi energy                               :         0.38777618
 Kinetic energy                             :      3862.44308000
 Coulomb energy                             :     -7481.61168802
 Exchange energy                            :      -125.95112390
 Correlation energy                         :        -2.98425326
 
 DOS at Fermi energy (states/Ha/cell)       :         0.00000000
 
 Electron charges :
     core                                   :        14.00000000
     core leakage                           :         0.00000024
     valence                                :        42.00000000
     interstitial                           :         5.28745817
     charge in muffin-tin spheres :
                  atom     1    Zr          :        36.20922283
                  atom     2     O          :         7.25165950
                  atom     3     O          :         7.25165950
     total charge in muffin-tins            :        50.71254183
     total charge                           :        56.00000000
 
 Estimated fundamental gap                  :         0.12913884
        valence-band maximum at   13      0.5000  0.5000  0.0000
     conduction-band minimum at    1      0.0000  0.0000  0.0000
 
 Wall time (seconds)                        :       105.78
 
 RMS change in effective potential (target) :  0.189225      ( 0.100000E-05)
 Absolute change in total energy   (target) :   1.27882      ( 0.100000E-05)
 Charge distance                   (target) :  0.944459E-02  ( 0.100000E-04)
 
++++++++++++++++++++++++++++++++++++++++++++++++++++++++++++++++++++++++++++++++
+ SCF iteration number :    4                                                  +
++++++++++++++++++++++++++++++++++++++++++++++++++++++++++++++++++++++++++++++++
 Total energy                               :     -3744.62080293
 _______________________________________________________________
 Fermi energy                               :         0.39972946
 Kinetic energy                             :      3865.37238498
 Coulomb energy                             :     -7481.03326226
 Exchange energy                            :      -125.97837445
 Correlation energy                         :        -2.98155121
 
 DOS at Fermi energy (states/Ha/cell)       :         0.00000000
 
 Electron charges :
     core                                   :        14.00000000
     core leakage                           :         0.00000024
     valence                                :        42.00000000
     interstitial                           :         5.21486634
     charge in muffin-tin spheres :
                  atom     1    Zr          :        36.10923296
                  atom     2     O          :         7.33795035
                  atom     3     O          :         7.33795035
     total charge in muffin-tins            :        50.78513366
     total charge                           :        56.00000000
 
 Estimated fundamental gap                  :         0.15112131
        valence-band maximum at   13      0.5000  0.5000  0.0000
     conduction-band minimum at    1      0.0000  0.0000  0.0000
 
 Wall time (seconds)                        :       134.66
 
 RMS change in effective potential (target) :  0.407248E-01  ( 0.100000E-05)
 Absolute change in total energy   (target) :   3.48318      ( 0.100000E-05)
 Charge distance                   (target) :  0.634913E-02  ( 0.100000E-04)
 
++++++++++++++++++++++++++++++++++++++++++++++++++++++++++++++++++++++++++++++++
+ SCF iteration number :    5                                                  +
++++++++++++++++++++++++++++++++++++++++++++++++++++++++++++++++++++++++++++++++
 Total energy                               :     -3749.22740777
 _______________________________________________________________
 Fermi energy                               :         0.39769594
 Kinetic energy                             :      3861.86525445
 Coulomb energy                             :     -7482.15440612
 Exchange energy                            :      -125.95285181
 Correlation energy                         :        -2.98540429
 
 DOS at Fermi energy (states/Ha/cell)       :         0.00000000
 
 Electron charges :
     core                                   :        14.00000000
     core leakage                           :         0.00000024
     valence                                :        42.00000000
     interstitial                           :         5.31426977
     charge in muffin-tin spheres :
                  atom     1    Zr          :        36.27935987
                  atom     2     O          :         7.20318518
                  atom     3     O          :         7.20318518
     total charge in muffin-tins            :        50.68573023
     total charge                           :        56.00000000
 
 Estimated fundamental gap                  :         0.11326619
        valence-band maximum at   13      0.5000  0.5000  0.0000
     conduction-band minimum at    1      0.0000  0.0000  0.0000
 
 Wall time (seconds)                        :       156.80
 
 RMS change in effective potential (target) :  0.153241E-01  ( 0.100000E-05)
 Absolute change in total energy   (target) :   4.60660      ( 0.100000E-05)
 Charge distance                   (target) :  0.985585E-02  ( 0.100000E-04)
 
++++++++++++++++++++++++++++++++++++++++++++++++++++++++++++++++++++++++++++++++
+ SCF iteration number :    6                                                  +
++++++++++++++++++++++++++++++++++++++++++++++++++++++++++++++++++++++++++++++++
 Total energy                               :     -3747.47873861
 _______________________________________________________________
 Fermi energy                               :         0.39976668
 Kinetic energy                             :      3862.88956101
 Coulomb energy                             :     -7481.45319523
 Exchange energy                            :      -125.93031053
 Correlation energy                         :        -2.98479386
 
 DOS at Fermi energy (states/Ha/cell)       :         0.00000000
 
 Electron charges :
     core                                   :        14.00000000
     core leakage                           :         0.00000024
     valence                                :        42.00000000
     interstitial                           :         5.31287650
     charge in muffin-tin spheres :
                  atom     1    Zr          :        36.24346343
                  atom     2     O          :         7.22183003
                  atom     3     O          :         7.22183003
     total charge in muffin-tins            :        50.68712350
     total charge                           :        56.00000000
 
 Estimated fundamental gap                  :         0.11971204
        valence-band maximum at   13      0.5000  0.5000  0.0000
     conduction-band minimum at    1      0.0000  0.0000  0.0000
 
 Wall time (seconds)                        :       179.42
 
 RMS change in effective potential (target) :  0.333234E-02  ( 0.100000E-05)
 Absolute change in total energy   (target) :   1.74867      ( 0.100000E-05)
 Charge distance                   (target) :  0.156591E-02  ( 0.100000E-04)
 
++++++++++++++++++++++++++++++++++++++++++++++++++++++++++++++++++++++++++++++++
+ SCF iteration number :    7                                                  +
++++++++++++++++++++++++++++++++++++++++++++++++++++++++++++++++++++++++++++++++
 Total energy                               :     -3747.53847375
 _______________________________________________________________
 Fermi energy                               :         0.39933520
 Kinetic energy                             :      3862.97581330
 Coulomb energy                             :     -7481.58821498
 Exchange energy                            :      -125.94153458
 Correlation energy                         :        -2.98453750
 
 DOS at Fermi energy (states/Ha/cell)       :         0.00000000
 
 Electron charges :
     core                                   :        14.00000000
     core leakage                           :         0.00000024
     valence                                :        42.00000000
     interstitial                           :         5.30223272
     charge in muffin-tin spheres :
                  atom     1    Zr          :        36.23406014
                  atom     2     O          :         7.23185357
                  atom     3     O          :         7.23185357
     total charge in muffin-tins            :        50.69776728
     total charge                           :        56.00000000
 
 Estimated fundamental gap                  :         0.12199177
        valence-band maximum at   13      0.5000  0.5000  0.0000
     conduction-band minimum at    1      0.0000  0.0000  0.0000
 
 Wall time (seconds)                        :       200.73
 
 RMS change in effective potential (target) :  0.154660E-03  ( 0.100000E-05)
 Absolute change in total energy   (target) :  0.597351E-01  ( 0.100000E-05)
 Charge distance                   (target) :  0.750271E-03  ( 0.100000E-04)
 
++++++++++++++++++++++++++++++++++++++++++++++++++++++++++++++++++++++++++++++++
+ SCF iteration number :    8                                                  +
++++++++++++++++++++++++++++++++++++++++++++++++++++++++++++++++++++++++++++++++
 Total energy                               :     -3747.55064881
 _______________________________________________________________
 Fermi energy                               :         0.39927796
 Kinetic energy                             :      3862.96172959
 Coulomb energy                             :     -7481.58620914
 Exchange energy                            :      -125.94162965
 Correlation energy                         :        -2.98453961
 
 DOS at Fermi energy (states/Ha/cell)       :         0.00000000
 
 Electron charges :
     core                                   :        14.00000000
     core leakage                           :         0.00000024
     valence                                :        42.00000000
     interstitial                           :         5.30197604
     charge in muffin-tin spheres :
                  atom     1    Zr          :        36.23447101
                  atom     2     O          :         7.23177648
                  atom     3     O          :         7.23177648
     total charge in muffin-tins            :        50.69802396
     total charge                           :        56.00000000
 
 Estimated fundamental gap                  :         0.12193637
        valence-band maximum at   13      0.5000  0.5000  0.0000
     conduction-band minimum at    1      0.0000  0.0000  0.0000
 
 Wall time (seconds)                        :       224.80
 
 RMS change in effective potential (target) :  0.520801E-04  ( 0.100000E-05)
 Absolute change in total energy   (target) :  0.121751E-01  ( 0.100000E-05)
 Charge distance                   (target) :  0.172572E-04  ( 0.100000E-04)
 
++++++++++++++++++++++++++++++++++++++++++++++++++++++++++++++++++++++++++++++++
+ SCF iteration number :    9                                                  +
++++++++++++++++++++++++++++++++++++++++++++++++++++++++++++++++++++++++++++++++
 Total energy                               :     -3747.54550187
 _______________________________________________________________
 Fermi energy                               :         0.39930518
 Kinetic energy                             :      3862.96693307
 Coulomb energy                             :     -7481.58636833
 Exchange energy                            :      -125.94152644
 Correlation energy                         :        -2.98454016
 
 DOS at Fermi energy (states/Ha/cell)       :         0.00000000
 
 Electron charges :
     core                                   :        14.00000000
     core leakage                           :         0.00000024
     valence                                :        42.00000000
     interstitial                           :         5.30214445
     charge in muffin-tin spheres :
                  atom     1    Zr          :        36.23432989
                  atom     2     O          :         7.23176283
                  atom     3     O          :         7.23176283
     total charge in muffin-tins            :        50.69785555
     total charge                           :        56.00000000
 
 Estimated fundamental gap                  :         0.12195401
        valence-band maximum at   13      0.5000  0.5000  0.0000
     conduction-band minimum at    1      0.0000  0.0000  0.0000
 
 Wall time (seconds)                        :       246.11
 
 RMS change in effective potential (target) :  0.489158E-05  ( 0.100000E-05)
 Absolute change in total energy   (target) :  0.514694E-02  ( 0.100000E-05)
 Charge distance                   (target) :  0.820711E-05  ( 0.100000E-04)
 
++++++++++++++++++++++++++++++++++++++++++++++++++++++++++++++++++++++++++++++++
+ SCF iteration number :   10                                                  +
++++++++++++++++++++++++++++++++++++++++++++++++++++++++++++++++++++++++++++++++
 Total energy                               :     -3747.54495423
 _______________________________________________________________
 Fermi energy                               :         0.39930671
 Kinetic energy                             :      3862.96725777
 Coulomb energy                             :     -7481.58615302
 Exchange energy                            :      -125.94151901
 Correlation energy                         :        -2.98453997
 
 DOS at Fermi energy (states/Ha/cell)       :         0.00000000
 
 Electron charges :
     core                                   :        14.00000000
     core leakage                           :         0.00000024
     valence                                :        42.00000000
     interstitial                           :         5.30214510
     charge in muffin-tin spheres :
                  atom     1    Zr          :        36.23431886
                  atom     2     O          :         7.23176802
                  atom     3     O          :         7.23176802
     total charge in muffin-tins            :        50.69785490
     total charge                           :        56.00000000
 
 Estimated fundamental gap                  :         0.12195593
        valence-band maximum at   13      0.5000  0.5000  0.0000
     conduction-band minimum at    1      0.0000  0.0000  0.0000
 
 Wall time (seconds)                        :       267.53
 
 RMS change in effective potential (target) :  0.148242E-05  ( 0.100000E-05)
 Absolute change in total energy   (target) :  0.547638E-03  ( 0.100000E-05)
 Charge distance                   (target) :  0.497979E-06  ( 0.100000E-04)
 
++++++++++++++++++++++++++++++++++++++++++++++++++++++++++++++++++++++++++++++++
+ SCF iteration number :   11                                                  +
++++++++++++++++++++++++++++++++++++++++++++++++++++++++++++++++++++++++++++++++
 Total energy                               :     -3747.54502304
 _______________________________________________________________
 Fermi energy                               :         0.39930679
 Kinetic energy                             :      3862.96719424
 Coulomb energy                             :     -7481.58616069
 Exchange energy                            :      -125.94151650
 Correlation energy                         :        -2.98454009
 
 DOS at Fermi energy (states/Ha/cell)       :         0.00000000
 
 Electron charges :
     core                                   :        14.00000000
     core leakage                           :         0.00000024
     valence                                :        42.00000000
     interstitial                           :         5.30214930
     charge in muffin-tin spheres :
                  atom     1    Zr          :        36.23432380
                  atom     2     O          :         7.23176345
                  atom     3     O          :         7.23176345
     total charge in muffin-tins            :        50.69785070
     total charge                           :        56.00000000
 
 Estimated fundamental gap                  :         0.12195478
        valence-band maximum at   13      0.5000  0.5000  0.0000
     conduction-band minimum at    1      0.0000  0.0000  0.0000
 
 Wall time (seconds)                        :       289.95
 
 RMS change in effective potential (target) :  0.632882E-07  ( 0.100000E-05)
 Absolute change in total energy   (target) :  0.688130E-04  ( 0.100000E-05)
 Charge distance                   (target) :  0.332072E-06  ( 0.100000E-04)
 
++++++++++++++++++++++++++++++++++++++++++++++++++++++++++++++++++++++++++++++++
+ SCF iteration number :   12                                                  +
++++++++++++++++++++++++++++++++++++++++++++++++++++++++++++++++++++++++++++++++
 Total energy                               :     -3747.54502220
 _______________________________________________________________
 Fermi energy                               :         0.39930679
 Kinetic energy                             :      3862.96719623
 Coulomb energy                             :     -7481.58616168
 Exchange energy                            :      -125.94151666
 Correlation energy                         :        -2.98454009
 
 DOS at Fermi energy (states/Ha/cell)       :         0.00000000
 
 Electron charges :
     core                                   :        14.00000000
     core leakage                           :         0.00000024
     valence                                :        42.00000000
     interstitial                           :         5.30214913
     charge in muffin-tin spheres :
                  atom     1    Zr          :        36.23432359
                  atom     2     O          :         7.23176364
                  atom     3     O          :         7.23176364
     total charge in muffin-tins            :        50.69785087
     total charge                           :        56.00000000
 
 Estimated fundamental gap                  :         0.12195483
        valence-band maximum at   13      0.5000  0.5000  0.0000
     conduction-band minimum at    1      0.0000  0.0000  0.0000
 
 Wall time (seconds)                        :       316.00
 
 RMS change in effective potential (target) :  0.797341E-08  ( 0.100000E-05)
 Absolute change in total energy   (target) :  0.842894E-06  ( 0.100000E-05)
 Charge distance                   (target) :  0.139697E-07  ( 0.100000E-04)
 
++++++++++++++++++++++++++++++++++++++++++++++++++++++++++++++++++++++++++++++++
+ SCF iteration number :   13                                                  +
++++++++++++++++++++++++++++++++++++++++++++++++++++++++++++++++++++++++++++++++
 Total energy                               :     -3747.54502251
 _______________________________________________________________
 Fermi energy                               :         0.39930679
 Kinetic energy                             :      3862.96719562
 Coulomb energy                             :     -7481.58616138
 Exchange energy                            :      -125.94151666
 Correlation energy                         :        -2.98454009
 
 DOS at Fermi energy (states/Ha/cell)       :         0.00000000
 
 Electron charges :
     core                                   :        14.00000000
     core leakage                           :         0.00000024
     valence                                :        42.00000000
     interstitial                           :         5.30214911
     charge in muffin-tin spheres :
                  atom     1    Zr          :        36.23432360
                  atom     2     O          :         7.23176364
                  atom     3     O          :         7.23176364
     total charge in muffin-tins            :        50.69785089
     total charge                           :        56.00000000
 
 Estimated fundamental gap                  :         0.12195483
        valence-band maximum at   13      0.5000  0.5000  0.0000
     conduction-band minimum at    1      0.0000  0.0000  0.0000
 
 Wall time (seconds)                        :       343.34
 
 RMS change in effective potential (target) :  0.698125E-08  ( 0.100000E-05)
 Absolute change in total energy   (target) :  0.312404E-06  ( 0.100000E-05)
 Charge distance                   (target) :  0.109833E-08  ( 0.100000E-04)
                                                                                
++++++++++++++++++++++++++++++++++++++++++++++++++++++++++++++++++++++++++++++++
| Convergency criteria checked for the last 2 iterations                       +
| Convergence targets achieved. Performing final SCF iteration                 +
++++++++++++++++++++++++++++++++++++++++++++++++++++++++++++++++++++++++++++++++
 Total energy                               :     -3747.54502279
 _______________________________________________________________
 Fermi energy                               :         0.39930679
 Kinetic energy                             :      3862.96719544
 Coulomb energy                             :     -7481.58616147
 Exchange energy                            :      -125.94151667
 Correlation energy                         :        -2.98454009
 
 DOS at Fermi energy (states/Ha/cell)       :         0.00000000
 
 Electron charges :
     core                                   :        14.00000000
     core leakage                           :         0.00000024
     valence                                :        42.00000000
     interstitial                           :         5.30214911
     charge in muffin-tin spheres :
                  atom     1    Zr          :        36.23432361
                  atom     2     O          :         7.23176364
                  atom     3     O          :         7.23176364
     total charge in muffin-tins            :        50.69785089
     total charge                           :        56.00000000
 
 Estimated fundamental gap                  :         0.12195483
        valence-band maximum at   13      0.5000  0.5000  0.0000
     conduction-band minimum at    1      0.0000  0.0000  0.0000
 
++++++++++++++++++++++++++++++++++++++++++++++++++++++++++++++++++++++++++++++++
+ Self-consistent loop stopped                                                 +
++++++++++++++++++++++++++++++++++++++++++++++++++++++++++++++++++++++++++++++++
 STATE.OUT is written
 
********************************************************************************
* Groundstate module stopped                                                   *
********************************************************************************
 
 Total time spent (seconds)                 :       372.52
================================================================================
| EXCITING NITROGEN-14 stopped                                                 =
================================================================================
