================================================================================
| EXCITING NITROGEN-14 started                                                 =
|                                                                              =
| MPI version using     16 processor(s)                                        =
|                                                                              =
| Date (DD-MM-YYYY) : 15-06-2022                                               =
| Time (hh:mm:ss)   : 20:33:23                                                 =
|                                                                              =
| All units are atomic (Hartree, Bohr, etc.)                                   =
================================================================================
 
********************************************************************************
* Ground-state run starting from atomic densities                              *
********************************************************************************
 
++++++++++++++++++++++++++++++++++++++++++++++++++++++++++++++++++++++++++++++++
+ Starting initialization                                                      +
++++++++++++++++++++++++++++++++++++++++++++++++++++++++++++++++++++++++++++++++
 
 Lattice vectors (cartesian) :
      6.1416094643      0.0000000000      0.0000000000
     -3.0708047321      5.3187898118      0.0000000000
      0.0000000000      0.0000000000      9.8398032247
 
 Reciprocal lattice vectors (cartesian) :
      1.0230519123      0.5906592975      0.0000000000
      0.0000000000      1.1813185949      0.0000000000
      0.0000000000      0.0000000000      0.6385478615
 
 Unit cell volume                           :     321.4263218433
 Brillouin zone volume                      :       0.7717171762
 
 Species :    1 (Zn)
     parameters loaded from                 :    Zn.xml
     name                                   :    zinc
     nuclear charge                         :     -30.00000000
     electronic charge                      :      30.00000000
     atomic mass                            :  119198.67800000
     muffin-tin radius                      :       1.80000000
     # of radial points in muffin-tin       :    1000
 
     atomic positions (lattice) :
       1 :   0.00000000  0.00000000  0.00000000
       2 :   0.33333334  0.66666666  0.50000000
 
 Species :    2 (O)
     parameters loaded from                 :    O.xml
     name                                   :    oxygen
     nuclear charge                         :      -8.00000000
     electronic charge                      :       8.00000000
     atomic mass                            :   29165.12203000
     muffin-tin radius                      :       1.50000000
     # of radial points in muffin-tin       :     500
 
     atomic positions (lattice) :
       1 :   0.00000000  0.00000000  0.38190000
       2 :   0.33333334  0.66666666  0.88190000
 
 Total number of atoms per unit cell        :       4
 
 Spin treatment                             :    spin-unpolarised
 
 Number of Bravais lattice symmetries       :      24
 Number of crystal symmetries               :      12
 
 k-point grid                               :       8    8    5
 Total number of k-points                   :      50
 k-point set is reduced with crystal symmetries
 
 R^MT_min * |G+k|_max (rgkmax)              :       9.00000000
 Species with R^MT_min                      :       2 (O)
 Maximum |G+k| for APW functions            :       6.00000000
 Maximum |G| for potential and density      :      24.00000000
 
 G-vector grid sizes                        :      48    48    80
 Total number of G-vectors                  :   75105
 
 Maximum angular momentum used for
     APW functions                          :       8
     computing H and O matrix elements      :       8
     potential and density                  :       8
     inner part of muffin-tin               :       2
 
 Total nuclear charge                       :     -76.00000000
 Total electronic charge                    :      76.00000000
 Total core charge                          :      24.00000000
 Total valence charge                       :      52.00000000
 
 Number of empty states                     :      10
 Total number of valence states             :      37
 
 Maximum Hamiltonian size                   :    2326
 Maximum number of plane-waves              :    1188
 Total number of local-orbitals             :    1138
 
 Exchange-correlation type                  :      22
     PBEsol, Phys. Rev. Lett. 100, 136406 (2008)
     Generalised gradient approximation (GGA)
 
 Smearing scheme                            :    Gaussian
 Smearing width                             :       0.00100000
 
 Using multisecant Broyden potential mixing
 
++++++++++++++++++++++++++++++++++++++++++++++++++++++++++++++++++++++++++++++++
+ Ending initialization                                                        +
++++++++++++++++++++++++++++++++++++++++++++++++++++++++++++++++++++++++++++++++
 
********************************************************************************
* Groundstate module started                                                   *
********************************************************************************
 Output level for this task is set to normal
 
++++++++++++++++++++++++++++++++++++++++++++++++++++++++++++++++++++++++++++++++
+ Self-consistent loop started                                                 +
++++++++++++++++++++++++++++++++++++++++++++++++++++++++++++++++++++++++++++++++
 Density and potential initialised from atomic data
 
 
++++++++++++++++++++++++++++++++++++++++++++++++++++++++++++++++++++++++++++++++
+ SCF iteration number :    1                                                  +
++++++++++++++++++++++++++++++++++++++++++++++++++++++++++++++++++++++++++++++++
 Total energy                               :     -3739.59431299
 _______________________________________________________________
 Fermi energy                               :         0.14252454
 Kinetic energy                             :      3805.38662948
 Coulomb energy                             :     -7387.42958356
 Exchange energy                            :      -153.60055030
 Correlation energy                         :        -3.95080862
 
 DOS at Fermi energy (states/Ha/cell)       :         0.00000000
 
 Electron charges :
     core                                   :        24.00000000
     core leakage                           :         0.00000077
     valence                                :        52.00000000
     interstitial                           :         6.25769525
     charge in muffin-tin spheres :
                  atom     1    Zn          :        27.54756778
                  atom     2    Zn          :        27.54756778
                  atom     3     O          :         7.32358460
                  atom     4     O          :         7.32358460
     total charge in muffin-tins            :        69.74230475
     total charge                           :        76.00000000
 
 Estimated fundamental gap                  :         0.05692667
        valence-band maximum at    1      0.0000  0.0000  0.0000
     conduction-band minimum at    1      0.0000  0.0000  0.0000
 
 Wall time (seconds)                        :        11.35
 
++++++++++++++++++++++++++++++++++++++++++++++++++++++++++++++++++++++++++++++++
+ SCF iteration number :    2                                                  +
++++++++++++++++++++++++++++++++++++++++++++++++++++++++++++++++++++++++++++++++
 Total energy                               :     -3741.94102909
 _______________________________________________________________
 Fermi energy                               :         0.16668851
 Kinetic energy                             :      3803.20950834
 Coulomb energy                             :     -7387.83234447
 Exchange energy                            :      -153.35990331
 Correlation energy                         :        -3.95828964
 
 DOS at Fermi energy (states/Ha/cell)       :         0.00000000
 
 Electron charges :
     core                                   :        24.00000000
     core leakage                           :         0.00000079
     valence                                :        52.00000000
     interstitial                           :         6.78001051
     charge in muffin-tin spheres :
                  atom     1    Zn          :        27.67075904
                  atom     2    Zn          :        27.67075904
                  atom     3     O          :         6.93923570
                  atom     4     O          :         6.93923570
     total charge in muffin-tins            :        69.21998949
     total charge                           :        76.00000000
 
 Estimated fundamental gap                  :         0.03983672
        valence-band maximum at    1      0.0000  0.0000  0.0000
     conduction-band minimum at    1      0.0000  0.0000  0.0000
 
 Wall time (seconds)                        :        20.36
 
 RMS change in effective potential (target) :  0.165527      ( 0.100000E-05)
 Absolute change in total energy   (target) :   2.34672      ( 0.100000E-05)
 Charge distance                   (target) :  0.202433E-01  ( 0.100000E-04)
 
++++++++++++++++++++++++++++++++++++++++++++++++++++++++++++++++++++++++++++++++
+ SCF iteration number :    3                                                  +
++++++++++++++++++++++++++++++++++++++++++++++++++++++++++++++++++++++++++++++++
 Total energy                               :     -3740.77676158
 _______________________________________________________________
 Fermi energy                               :         0.17692623
 Kinetic energy                             :      3803.36969465
 Coulomb energy                             :     -7386.95879923
 Exchange energy                            :      -153.22794575
 Correlation energy                         :        -3.95971125
 
 DOS at Fermi energy (states/Ha/cell)       :         0.00000000
 
 Electron charges :
     core                                   :        24.00000000
     core leakage                           :         0.00000080
     valence                                :        52.00000000
     interstitial                           :         6.93878494
     charge in muffin-tin spheres :
                  atom     1    Zn          :        27.69258659
                  atom     2    Zn          :        27.69258659
                  atom     3     O          :         6.83802094
                  atom     4     O          :         6.83802094
     total charge in muffin-tins            :        69.06121506
     total charge                           :        76.00000000
 
 Estimated fundamental gap                  :         0.03028008
        valence-band maximum at    1      0.0000  0.0000  0.0000
     conduction-band minimum at    1      0.0000  0.0000  0.0000
 
 Wall time (seconds)                        :        29.61
 
 RMS change in effective potential (target) :  0.124981      ( 0.100000E-05)
 Absolute change in total energy   (target) :   1.16427      ( 0.100000E-05)
 Charge distance                   (target) :  0.557655E-02  ( 0.100000E-04)
 
++++++++++++++++++++++++++++++++++++++++++++++++++++++++++++++++++++++++++++++++
+ SCF iteration number :    4                                                  +
++++++++++++++++++++++++++++++++++++++++++++++++++++++++++++++++++++++++++++++++
 Total energy                               :     -3750.76026095
 _______________________________________________________________
 Fermi energy                               :         0.16698629
 Kinetic energy                             :      3799.62403962
 Coulomb energy                             :     -7392.70851047
 Exchange energy                            :      -153.71364710
 Correlation energy                         :        -3.96214299
 
 DOS at Fermi energy (states/Ha/cell)       :         0.00000000
 
 Electron charges :
     core                                   :        24.00000000
     core leakage                           :         0.00000077
     valence                                :        52.00000000
     interstitial                           :         6.68658424
     charge in muffin-tin spheres :
                  atom     1    Zn          :        27.73773016
                  atom     2    Zn          :        27.73773016
                  atom     3     O          :         6.91897772
                  atom     4     O          :         6.91897772
     total charge in muffin-tins            :        69.31341576
     total charge                           :        76.00000000
 
 Estimated fundamental gap                  :         0.04730976
        valence-band maximum at    1      0.0000  0.0000  0.0000
     conduction-band minimum at    1      0.0000  0.0000  0.0000
 
 Wall time (seconds)                        :        38.63
 
 RMS change in effective potential (target) :  0.650764E-01  ( 0.100000E-05)
 Absolute change in total energy   (target) :   9.98350      ( 0.100000E-05)
 Charge distance                   (target) :  0.996368E-02  ( 0.100000E-04)
 
++++++++++++++++++++++++++++++++++++++++++++++++++++++++++++++++++++++++++++++++
+ SCF iteration number :    5                                                  +
++++++++++++++++++++++++++++++++++++++++++++++++++++++++++++++++++++++++++++++++
 Total energy                               :     -3735.94047515
 _______________________________________________________________
 Fermi energy                               :         0.18627474
 Kinetic energy                             :      3805.25328839
 Coulomb energy                             :     -7384.21649249
 Exchange energy                            :      -153.01936433
 Correlation energy                         :        -3.95790672
 
 DOS at Fermi energy (states/Ha/cell)       :         0.00000000
 
 Electron charges :
     core                                   :        24.00000000
     core leakage                           :         0.00000078
     valence                                :        52.00000000
     interstitial                           :         7.01920238
     charge in muffin-tin spheres :
                  atom     1    Zn          :        27.67392476
                  atom     2    Zn          :        27.67392476
                  atom     3     O          :         6.81647405
                  atom     4     O          :         6.81647405
     total charge in muffin-tins            :        68.98079762
     total charge                           :        76.00000000
 
 Estimated fundamental gap                  :         0.02265058
        valence-band maximum at    1      0.0000  0.0000  0.0000
     conduction-band minimum at    1      0.0000  0.0000  0.0000
 
 Wall time (seconds)                        :        47.88
 
 RMS change in effective potential (target) :  0.213650E-01  ( 0.100000E-05)
 Absolute change in total energy   (target) :   14.8198      ( 0.100000E-05)
 Charge distance                   (target) :  0.139196E-01  ( 0.100000E-04)
 
++++++++++++++++++++++++++++++++++++++++++++++++++++++++++++++++++++++++++++++++
+ SCF iteration number :    6                                                  +
++++++++++++++++++++++++++++++++++++++++++++++++++++++++++++++++++++++++++++++++
 Total energy                               :     -3739.49403310
 _______________________________________________________________
 Fermi energy                               :         0.18416757
 Kinetic energy                             :      3803.85086564
 Coulomb energy                             :     -7386.22640209
 Exchange energy                            :      -153.15896925
 Correlation energy                         :        -3.95952741
 
 DOS at Fermi energy (states/Ha/cell)       :         0.00000000
 
 Electron charges :
     core                                   :        24.00000000
     core leakage                           :         0.00000078
     valence                                :        52.00000000
     interstitial                           :         6.98672059
     charge in muffin-tin spheres :
                  atom     1    Zn          :        27.69779936
                  atom     2    Zn          :        27.69779936
                  atom     3     O          :         6.80884035
                  atom     4     O          :         6.80884035
     total charge in muffin-tins            :        69.01327941
     total charge                           :        76.00000000
 
 Estimated fundamental gap                  :         0.02557014
        valence-band maximum at    1      0.0000  0.0000  0.0000
     conduction-band minimum at    1      0.0000  0.0000  0.0000
 
 Wall time (seconds)                        :        57.23
 
 RMS change in effective potential (target) :  0.174855E-02  ( 0.100000E-05)
 Absolute change in total energy   (target) :   3.55356      ( 0.100000E-05)
 Charge distance                   (target) :  0.222029E-02  ( 0.100000E-04)
 
++++++++++++++++++++++++++++++++++++++++++++++++++++++++++++++++++++++++++++++++
+ SCF iteration number :    7                                                  +
++++++++++++++++++++++++++++++++++++++++++++++++++++++++++++++++++++++++++++++++
 Total energy                               :     -3739.57023452
 _______________________________________________________________
 Fermi energy                               :         0.18350573
 Kinetic energy                             :      3803.83349153
 Coulomb energy                             :     -7386.27631083
 Exchange energy                            :      -153.16799665
 Correlation energy                         :        -3.95941856
 
 DOS at Fermi energy (states/Ha/cell)       :         0.00000000
 
 Electron charges :
     core                                   :        24.00000000
     core leakage                           :         0.00000078
     valence                                :        52.00000000
     interstitial                           :         6.97527313
     charge in muffin-tin spheres :
                  atom     1    Zn          :        27.69653622
                  atom     2    Zn          :        27.69653622
                  atom     3     O          :         6.81582722
                  atom     4     O          :         6.81582722
     total charge in muffin-tins            :        69.02472687
     total charge                           :        76.00000000
 
 Estimated fundamental gap                  :         0.02628063
        valence-band maximum at    1      0.0000  0.0000  0.0000
     conduction-band minimum at    1      0.0000  0.0000  0.0000
 
 Wall time (seconds)                        :        66.58
 
 RMS change in effective potential (target) :  0.124139E-03  ( 0.100000E-05)
 Absolute change in total energy   (target) :  0.762014E-01  ( 0.100000E-05)
 Charge distance                   (target) :  0.384067E-03  ( 0.100000E-04)
 
++++++++++++++++++++++++++++++++++++++++++++++++++++++++++++++++++++++++++++++++
+ SCF iteration number :    8                                                  +
++++++++++++++++++++++++++++++++++++++++++++++++++++++++++++++++++++++++++++++++
 Total energy                               :     -3739.54788815
 _______________________________________________________________
 Fermi energy                               :         0.18351729
 Kinetic energy                             :      3803.84308948
 Coulomb energy                             :     -7386.26451895
 Exchange energy                            :      -153.16704902
 Correlation energy                         :        -3.95940966
 
 DOS at Fermi energy (states/Ha/cell)       :         0.00000000
 
 Electron charges :
     core                                   :        24.00000000
     core leakage                           :         0.00000078
     valence                                :        52.00000000
     interstitial                           :         6.97562399
     charge in muffin-tin spheres :
                  atom     1    Zn          :        27.69637340
                  atom     2    Zn          :        27.69637340
                  atom     3     O          :         6.81581461
                  atom     4     O          :         6.81581461
     total charge in muffin-tins            :        69.02437601
     total charge                           :        76.00000000
 
 Estimated fundamental gap                  :         0.02625192
        valence-band maximum at    1      0.0000  0.0000  0.0000
     conduction-band minimum at    1      0.0000  0.0000  0.0000
 
 Wall time (seconds)                        :        75.94
 
 RMS change in effective potential (target) :  0.233209E-04  ( 0.100000E-05)
 Absolute change in total energy   (target) :  0.223464E-01  ( 0.100000E-05)
 Charge distance                   (target) :  0.158203E-04  ( 0.100000E-04)
 
++++++++++++++++++++++++++++++++++++++++++++++++++++++++++++++++++++++++++++++++
+ SCF iteration number :    9                                                  +
++++++++++++++++++++++++++++++++++++++++++++++++++++++++++++++++++++++++++++++++
 Total energy                               :     -3739.55231976
 _______________________________________________________________
 Fermi energy                               :         0.18351457
 Kinetic energy                             :      3803.84072910
 Coulomb energy                             :     -7386.26642203
 Exchange energy                            :      -153.16721482
 Correlation energy                         :        -3.95941201
 
 DOS at Fermi energy (states/Ha/cell)       :         0.00000000
 
 Electron charges :
     core                                   :        24.00000000
     core leakage                           :         0.00000078
     valence                                :        52.00000000
     interstitial                           :         6.97557530
     charge in muffin-tin spheres :
                  atom     1    Zn          :        27.69641614
                  atom     2    Zn          :        27.69641614
                  atom     3     O          :         6.81579621
                  atom     4     O          :         6.81579621
     total charge in muffin-tins            :        69.02442470
     total charge                           :        76.00000000
 
 Estimated fundamental gap                  :         0.02625739
        valence-band maximum at    1      0.0000  0.0000  0.0000
     conduction-band minimum at    1      0.0000  0.0000  0.0000
 
 Wall time (seconds)                        :        85.36
 
 RMS change in effective potential (target) :  0.320558E-05  ( 0.100000E-05)
 Absolute change in total energy   (target) :  0.443161E-02  ( 0.100000E-05)
 Charge distance                   (target) :  0.309730E-05  ( 0.100000E-04)
 
++++++++++++++++++++++++++++++++++++++++++++++++++++++++++++++++++++++++++++++++
+ SCF iteration number :   10                                                  +
++++++++++++++++++++++++++++++++++++++++++++++++++++++++++++++++++++++++++++++++
 Total energy                               :     -3739.55182924
 _______________________________________________________________
 Fermi energy                               :         0.18351515
 Kinetic energy                             :      3803.84099840
 Coulomb energy                             :     -7386.26621865
 Exchange energy                            :      -153.16719727
 Correlation energy                         :        -3.95941172
 
 DOS at Fermi energy (states/Ha/cell)       :         0.00000000
 
 Electron charges :
     core                                   :        24.00000000
     core leakage                           :         0.00000078
     valence                                :        52.00000000
     interstitial                           :         6.97557936
     charge in muffin-tin spheres :
                  atom     1    Zn          :        27.69641162
                  atom     2    Zn          :        27.69641162
                  atom     3     O          :         6.81579870
                  atom     4     O          :         6.81579870
     total charge in muffin-tins            :        69.02442064
     total charge                           :        76.00000000
 
 Estimated fundamental gap                  :         0.02625685
        valence-band maximum at    1      0.0000  0.0000  0.0000
     conduction-band minimum at    1      0.0000  0.0000  0.0000
 
 Wall time (seconds)                        :        94.71
 
 RMS change in effective potential (target) :  0.501878E-06  ( 0.100000E-05)
 Absolute change in total energy   (target) :  0.490516E-03  ( 0.100000E-05)
 Charge distance                   (target) :  0.403140E-06  ( 0.100000E-04)
 
++++++++++++++++++++++++++++++++++++++++++++++++++++++++++++++++++++++++++++++++
+ SCF iteration number :   11                                                  +
++++++++++++++++++++++++++++++++++++++++++++++++++++++++++++++++++++++++++++++++
 Total energy                               :     -3739.55181614
 _______________________________________________________________
 Fermi energy                               :         0.18351520
 Kinetic energy                             :      3803.84100713
 Coulomb energy                             :     -7386.26621500
 Exchange energy                            :      -153.16719655
 Correlation energy                         :        -3.95941172
 
 DOS at Fermi energy (states/Ha/cell)       :         0.00000000
 
 Electron charges :
     core                                   :        24.00000000
     core leakage                           :         0.00000078
     valence                                :        52.00000000
     interstitial                           :         6.97558006
     charge in muffin-tin spheres :
                  atom     1    Zn          :        27.69641154
                  atom     2    Zn          :        27.69641154
                  atom     3     O          :         6.81579843
                  atom     4     O          :         6.81579843
     total charge in muffin-tins            :        69.02441994
     total charge                           :        76.00000000
 
 Estimated fundamental gap                  :         0.02625681
        valence-band maximum at    1      0.0000  0.0000  0.0000
     conduction-band minimum at    1      0.0000  0.0000  0.0000
 
 Wall time (seconds)                        :       103.98
 
 RMS change in effective potential (target) :  0.187321E-06  ( 0.100000E-05)
 Absolute change in total energy   (target) :  0.131044E-04  ( 0.100000E-05)
 Charge distance                   (target) :  0.575965E-07  ( 0.100000E-04)
 
++++++++++++++++++++++++++++++++++++++++++++++++++++++++++++++++++++++++++++++++
+ SCF iteration number :   12                                                  +
++++++++++++++++++++++++++++++++++++++++++++++++++++++++++++++++++++++++++++++++
 Total energy                               :     -3739.55182784
 _______________________________________________________________
 Fermi energy                               :         0.18351520
 Kinetic energy                             :      3803.84100145
 Coulomb energy                             :     -7386.26622062
 Exchange energy                            :      -153.16719695
 Correlation energy                         :        -3.95941173
 
 DOS at Fermi energy (states/Ha/cell)       :         0.00000000
 
 Electron charges :
     core                                   :        24.00000000
     core leakage                           :         0.00000078
     valence                                :        52.00000000
     interstitial                           :         6.97558005
     charge in muffin-tin spheres :
                  atom     1    Zn          :        27.69641167
                  atom     2    Zn          :        27.69641167
                  atom     3     O          :         6.81579830
                  atom     4     O          :         6.81579830
     total charge in muffin-tins            :        69.02441995
     total charge                           :        76.00000000
 
 Estimated fundamental gap                  :         0.02625680
        valence-band maximum at    1      0.0000  0.0000  0.0000
     conduction-band minimum at    1      0.0000  0.0000  0.0000
 
 Wall time (seconds)                        :       113.30
 
 RMS change in effective potential (target) :  0.500395E-07  ( 0.100000E-05)
 Absolute change in total energy   (target) :  0.117073E-04  ( 0.100000E-05)
 Charge distance                   (target) :  0.205244E-07  ( 0.100000E-04)
 
++++++++++++++++++++++++++++++++++++++++++++++++++++++++++++++++++++++++++++++++
+ SCF iteration number :   13                                                  +
++++++++++++++++++++++++++++++++++++++++++++++++++++++++++++++++++++++++++++++++
 Total energy                               :     -3739.55182377
 _______________________________________________________________
 Fermi energy                               :         0.18351520
 Kinetic energy                             :      3803.84100378
 Coulomb energy                             :     -7386.26621903
 Exchange energy                            :      -153.16719679
 Correlation energy                         :        -3.95941173
 
 DOS at Fermi energy (states/Ha/cell)       :         0.00000000
 
 Electron charges :
     core                                   :        24.00000000
     core leakage                           :         0.00000078
     valence                                :        52.00000000
     interstitial                           :         6.97558011
     charge in muffin-tin spheres :
                  atom     1    Zn          :        27.69641163
                  atom     2    Zn          :        27.69641163
                  atom     3     O          :         6.81579831
                  atom     4     O          :         6.81579831
     total charge in muffin-tins            :        69.02441989
     total charge                           :        76.00000000
 
 Estimated fundamental gap                  :         0.02625680
        valence-band maximum at    1      0.0000  0.0000  0.0000
     conduction-band minimum at    1      0.0000  0.0000  0.0000
 
 Wall time (seconds)                        :       122.87
 
 RMS change in effective potential (target) :  0.489383E-06  ( 0.100000E-05)
 Absolute change in total energy   (target) :  0.406918E-05  ( 0.100000E-05)
 Charge distance                   (target) :  0.122042E-07  ( 0.100000E-04)
 
++++++++++++++++++++++++++++++++++++++++++++++++++++++++++++++++++++++++++++++++
+ SCF iteration number :   14                                                  +
++++++++++++++++++++++++++++++++++++++++++++++++++++++++++++++++++++++++++++++++
 Total energy                               :     -3739.55182426
 _______________________________________________________________
 Fermi energy                               :         0.18351521
 Kinetic energy                             :      3803.84100359
 Coulomb energy                             :     -7386.26621933
 Exchange energy                            :      -153.16719681
 Correlation energy                         :        -3.95941173
 
 DOS at Fermi energy (states/Ha/cell)       :         0.00000000
 
 Electron charges :
     core                                   :        24.00000000
     core leakage                           :         0.00000078
     valence                                :        52.00000000
     interstitial                           :         6.97558013
     charge in muffin-tin spheres :
                  atom     1    Zn          :        27.69641164
                  atom     2    Zn          :        27.69641164
                  atom     3     O          :         6.81579830
                  atom     4     O          :         6.81579830
     total charge in muffin-tins            :        69.02441987
     total charge                           :        76.00000000
 
 Estimated fundamental gap                  :         0.02625680
        valence-band maximum at    1      0.0000  0.0000  0.0000
     conduction-band minimum at    1      0.0000  0.0000  0.0000
 
 Wall time (seconds)                        :       132.41
 
 RMS change in effective potential (target) :  0.438522E-06  ( 0.100000E-05)
 Absolute change in total energy   (target) :  0.490030E-06  ( 0.100000E-05)
 Charge distance                   (target) :  0.425297E-08  ( 0.100000E-04)
 
++++++++++++++++++++++++++++++++++++++++++++++++++++++++++++++++++++++++++++++++
+ SCF iteration number :   15                                                  +
++++++++++++++++++++++++++++++++++++++++++++++++++++++++++++++++++++++++++++++++
 Total energy                               :     -3739.55182496
 _______________________________________________________________
 Fermi energy                               :         0.18351520
 Kinetic energy                             :      3803.84100316
 Coulomb energy                             :     -7386.26621956
 Exchange energy                            :      -153.16719683
 Correlation energy                         :        -3.95941173
 
 DOS at Fermi energy (states/Ha/cell)       :         0.00000000
 
 Electron charges :
     core                                   :        24.00000000
     core leakage                           :         0.00000078
     valence                                :        52.00000000
     interstitial                           :         6.97558012
     charge in muffin-tin spheres :
                  atom     1    Zn          :        27.69641164
                  atom     2    Zn          :        27.69641164
                  atom     3     O          :         6.81579830
                  atom     4     O          :         6.81579830
     total charge in muffin-tins            :        69.02441988
     total charge                           :        76.00000000
 
 Estimated fundamental gap                  :         0.02625680
        valence-band maximum at    1      0.0000  0.0000  0.0000
     conduction-band minimum at    1      0.0000  0.0000  0.0000
 
 Wall time (seconds)                        :       141.88
 
 RMS change in effective potential (target) :  0.298088E-06  ( 0.100000E-05)
 Absolute change in total energy   (target) :  0.694935E-06  ( 0.100000E-05)
 Charge distance                   (target) :  0.107382E-07  ( 0.100000E-04)
                                                                                
++++++++++++++++++++++++++++++++++++++++++++++++++++++++++++++++++++++++++++++++
| Convergency criteria checked for the last 2 iterations                       +
| Convergence targets achieved. Performing final SCF iteration                 +
++++++++++++++++++++++++++++++++++++++++++++++++++++++++++++++++++++++++++++++++
 Total energy                               :     -3739.55182580
 _______________________________________________________________
 Fermi energy                               :         0.18351520
 Kinetic energy                             :      3803.84100293
 Coulomb energy                             :     -7386.26622013
 Exchange energy                            :      -153.16719688
 Correlation energy                         :        -3.95941173
 
 DOS at Fermi energy (states/Ha/cell)       :         0.00000000
 
 Electron charges :
     core                                   :        24.00000000
     core leakage                           :         0.00000078
     valence                                :        52.00000000
     interstitial                           :         6.97558009
     charge in muffin-tin spheres :
                  atom     1    Zn          :        27.69641164
                  atom     2    Zn          :        27.69641164
                  atom     3     O          :         6.81579831
                  atom     4     O          :         6.81579831
     total charge in muffin-tins            :        69.02441991
     total charge                           :        76.00000000
 
 Estimated fundamental gap                  :         0.02625680
        valence-band maximum at    1      0.0000  0.0000  0.0000
     conduction-band minimum at    1      0.0000  0.0000  0.0000
 
++++++++++++++++++++++++++++++++++++++++++++++++++++++++++++++++++++++++++++++++
+ Self-consistent loop stopped                                                 +
++++++++++++++++++++++++++++++++++++++++++++++++++++++++++++++++++++++++++++++++
 STATE.OUT is written
 
********************************************************************************
* Groundstate module stopped                                                   *
********************************************************************************
 
 Total time spent (seconds)                 :       152.21
================================================================================
| EXCITING NITROGEN-14 stopped                                                 =
================================================================================
