================================================================================
| EXCITING NITROGEN-14 started                                                 =
|                                                                              =
| MPI version using      1 processor(s)                                        =
|                                                                              =
| Date (DD-MM-YYYY) : 11-08-2022                                               =
| Time (hh:mm:ss)   : 13:52:48                                                 =
|                                                                              =
| All units are atomic (Hartree, Bohr, etc.)                                   =
================================================================================
 
********************************************************************************
* Ground-state run starting from atomic densities                              *
********************************************************************************
 
++++++++++++++++++++++++++++++++++++++++++++++++++++++++++++++++++++++++++++++++
+ Starting initialization                                                      +
++++++++++++++++++++++++++++++++++++++++++++++++++++++++++++++++++++++++++++++++
 
 Lattice vectors (cartesian) :
      0.0000000000      4.7918548177      4.7918548177
      4.7918548177      0.0000000000      4.7918548177
      4.7918548177      4.7918548177      0.0000000000
 
 Reciprocal lattice vectors (cartesian) :
     -0.6556109843      0.6556109843      0.6556109843
      0.6556109843     -0.6556109843      0.6556109843
      0.6556109843      0.6556109843     -0.6556109843
 
 Unit cell volume                           :     220.0599196226
 Brillouin zone volume                      :       1.1271939655
 
 Species :    1 (Zr)
     parameters loaded from                 :    Zr.xml
     name                                   :    zirconium
     nuclear charge                         :     -40.00000000
     electronic charge                      :      40.00000000
     atomic mass                            :  166291.17910000
     muffin-tin radius                      :       2.00000000
     # of radial points in muffin-tin       :     600
 
     atomic positions (lattice) :
       1 :   0.00000000  0.00000000  0.00000000
 
 Species :    2 (O)
     parameters loaded from                 :    O.xml
     name                                   :    oxygen
     nuclear charge                         :      -8.00000000
     electronic charge                      :       8.00000000
     atomic mass                            :   29165.12203000
     muffin-tin radius                      :       1.60000000
     # of radial points in muffin-tin       :     600
 
     atomic positions (lattice) :
       1 :   0.25000000  0.25000000  0.25000000
       2 :   0.75000000  0.75000000  0.75000000
 
 Total number of atoms per unit cell        :       3
 
 Spin treatment                             :    spin-unpolarised
 
 Number of Bravais lattice symmetries       :      48
 Number of crystal symmetries               :      48
 
 k-point grid                               :       6    6    6
 Total number of k-points                   :      16
 k-point set is reduced with crystal symmetries
 
 R^MT_min * |G+k|_max (rgkmax)              :       8.00000000
 Species with R^MT_min                      :       2 (O)
 Maximum |G+k| for APW functions            :       5.00000000
 Maximum |G| for potential and density      :      20.00000000
 
 G-vector grid sizes                        :      45    45    45
 Total number of G-vectors                  :   29627
 
 Maximum angular momentum used for
     APW functions                          :       8
     computing H and O matrix elements      :       8
     potential and density                  :       8
     inner part of muffin-tin               :       2
 
 Total nuclear charge                       :     -56.00000000
 Total electronic charge                    :      56.00000000
 Total core charge                          :      14.00000000
 Total valence charge                       :      42.00000000
 
 Number of empty states                     :       5
 Total number of valence states             :      27
 
 Maximum Hamiltonian size                   :    1232
 Maximum number of plane-waves              :     483
 Total number of local-orbitals             :     749
 
 Exchange-correlation type                  :      22
     PBEsol, Phys. Rev. Lett. 100, 136406 (2008)
     Generalised gradient approximation (GGA)
 
 Smearing scheme                            :    Gaussian
 Smearing width                             :       0.00100000
 
 Using multisecant Broyden potential mixing
 
++++++++++++++++++++++++++++++++++++++++++++++++++++++++++++++++++++++++++++++++
+ Ending initialization                                                        +
++++++++++++++++++++++++++++++++++++++++++++++++++++++++++++++++++++++++++++++++
 
********************************************************************************
* Groundstate module started                                                   *
********************************************************************************
 Output level for this task is set to normal
 
++++++++++++++++++++++++++++++++++++++++++++++++++++++++++++++++++++++++++++++++
+ Self-consistent loop started                                                 +
++++++++++++++++++++++++++++++++++++++++++++++++++++++++++++++++++++++++++++++++
 Density and potential initialised from atomic data
 
 
++++++++++++++++++++++++++++++++++++++++++++++++++++++++++++++++++++++++++++++++
+ SCF iteration number :    1                                                  +
++++++++++++++++++++++++++++++++++++++++++++++++++++++++++++++++++++++++++++++++
 Total energy                               :     -3743.32886520
 _______________________________________________________________
 Fermi energy                               :         0.33572236
 Kinetic energy                             :      3867.75333734
 Coulomb energy                             :     -7481.72388346
 Exchange energy                            :      -126.38710087
 Correlation energy                         :        -2.97121822
 
 DOS at Fermi energy (states/Ha/cell)       :         0.00000000
 
 Electron charges :
     core                                   :        14.00000000
     core leakage                           :         0.00000023
     valence                                :        42.00000000
     interstitial                           :         4.64567311
     charge in muffin-tin spheres :
                  atom     1    Zr          :        35.78532195
                  atom     2     O          :         7.78450247
                  atom     3     O          :         7.78450247
     total charge in muffin-tins            :        51.35432689
     total charge                           :        56.00000000
 
 Estimated fundamental gap                  :         0.25261376
        valence-band maximum at   13      0.5000  0.5000  0.0000
     conduction-band minimum at   13      0.5000  0.5000  0.0000
 
 Wall time (seconds)                        :        65.20
 
++++++++++++++++++++++++++++++++++++++++++++++++++++++++++++++++++++++++++++++++
+ SCF iteration number :    2                                                  +
++++++++++++++++++++++++++++++++++++++++++++++++++++++++++++++++++++++++++++++++
 Total energy                               :     -3746.82516484
 _______________________________________________________________
 Fermi energy                               :         0.37709947
 Kinetic energy                             :      3863.81465373
 Coulomb energy                             :     -7481.61574640
 Exchange energy                            :      -126.04331633
 Correlation energy                         :        -2.98075583
 
 DOS at Fermi energy (states/Ha/cell)       :         0.00000000
 
 Electron charges :
     core                                   :        14.00000000
     core leakage                           :         0.00000024
     valence                                :        42.00000000
     interstitial                           :         5.14357939
     charge in muffin-tin spheres :
                  atom     1    Zr          :        36.08920659
                  atom     2     O          :         7.38360701
                  atom     3     O          :         7.38360701
     total charge in muffin-tins            :        50.85642061
     total charge                           :        56.00000000
 
 Estimated fundamental gap                  :         0.16140196
        valence-band maximum at   13      0.5000  0.5000  0.0000
     conduction-band minimum at    1      0.0000  0.0000  0.0000
 
 Wall time (seconds)                        :        84.21
 
 RMS change in effective potential (target) :  0.251372      ( 0.100000E-05)
 Absolute change in total energy   (target) :   3.49630      ( 0.100000E-05)
 Charge distance                   (target) :  0.290048E-01  ( 0.100000E-04)
 
++++++++++++++++++++++++++++++++++++++++++++++++++++++++++++++++++++++++++++++++
+ SCF iteration number :    3                                                  +
++++++++++++++++++++++++++++++++++++++++++++++++++++++++++++++++++++++++++++++++
 Total energy                               :     -3748.10398524
 _______________________________________________________________
 Fermi energy                               :         0.38777618
 Kinetic energy                             :      3862.44307997
 Coulomb energy                             :     -7481.61168804
 Exchange energy                            :      -125.95112390
 Correlation energy                         :        -2.98425326
 
 DOS at Fermi energy (states/Ha/cell)       :         0.00000000
 
 Electron charges :
     core                                   :        14.00000000
     core leakage                           :         0.00000024
     valence                                :        42.00000000
     interstitial                           :         5.28745817
     charge in muffin-tin spheres :
                  atom     1    Zr          :        36.20922283
                  atom     2     O          :         7.25165950
                  atom     3     O          :         7.25165950
     total charge in muffin-tins            :        50.71254183
     total charge                           :        56.00000000
 
 Estimated fundamental gap                  :         0.12913884
        valence-band maximum at   13      0.5000  0.5000  0.0000
     conduction-band minimum at    1      0.0000  0.0000  0.0000
 
 Wall time (seconds)                        :       105.70
 
 RMS change in effective potential (target) :  0.189225      ( 0.100000E-05)
 Absolute change in total energy   (target) :   1.27882      ( 0.100000E-05)
 Charge distance                   (target) :  0.944459E-02  ( 0.100000E-04)
 
++++++++++++++++++++++++++++++++++++++++++++++++++++++++++++++++++++++++++++++++
+ SCF iteration number :    4                                                  +
++++++++++++++++++++++++++++++++++++++++++++++++++++++++++++++++++++++++++++++++
 Total energy                               :     -3744.62080072
 _______________________________________________________________
 Fermi energy                               :         0.39972947
 Kinetic energy                             :      3865.37238740
 Coulomb energy                             :     -7481.03326235
 Exchange energy                            :      -125.97837457
 Correlation energy                         :        -2.98155120
 
 DOS at Fermi energy (states/Ha/cell)       :         0.00000000
 
 Electron charges :
     core                                   :        14.00000000
     core leakage                           :         0.00000024
     valence                                :        42.00000000
     interstitial                           :         5.21486616
     charge in muffin-tin spheres :
                  atom     1    Zr          :        36.10923283
                  atom     2     O          :         7.33795050
                  atom     3     O          :         7.33795050
     total charge in muffin-tins            :        50.78513384
     total charge                           :        56.00000000
 
 Estimated fundamental gap                  :         0.15112135
        valence-band maximum at   13      0.5000  0.5000  0.0000
     conduction-band minimum at    1      0.0000  0.0000  0.0000
 
 Wall time (seconds)                        :       126.89
 
 RMS change in effective potential (target) :  0.407249E-01  ( 0.100000E-05)
 Absolute change in total energy   (target) :   3.48318      ( 0.100000E-05)
 Charge distance                   (target) :  0.634914E-02  ( 0.100000E-04)
 
++++++++++++++++++++++++++++++++++++++++++++++++++++++++++++++++++++++++++++++++
+ SCF iteration number :    5                                                  +
++++++++++++++++++++++++++++++++++++++++++++++++++++++++++++++++++++++++++++++++
 Total energy                               :     -3749.22741006
 _______________________________________________________________
 Fermi energy                               :         0.39769595
 Kinetic energy                             :      3861.86525218
 Coulomb energy                             :     -7482.15440622
 Exchange energy                            :      -125.95285172
 Correlation energy                         :        -2.98540429
 
 DOS at Fermi energy (states/Ha/cell)       :         0.00000000
 
 Electron charges :
     core                                   :        14.00000000
     core leakage                           :         0.00000024
     valence                                :        42.00000000
     interstitial                           :         5.31426993
     charge in muffin-tin spheres :
                  atom     1    Zr          :        36.27936002
                  atom     2     O          :         7.20318502
                  atom     3     O          :         7.20318502
     total charge in muffin-tins            :        50.68573007
     total charge                           :        56.00000000
 
 Estimated fundamental gap                  :         0.11326615
        valence-band maximum at   13      0.5000  0.5000  0.0000
     conduction-band minimum at    1      0.0000  0.0000  0.0000
 
 Wall time (seconds)                        :       145.92
 
 RMS change in effective potential (target) :  0.153241E-01  ( 0.100000E-05)
 Absolute change in total energy   (target) :   4.60661      ( 0.100000E-05)
 Charge distance                   (target) :  0.985587E-02  ( 0.100000E-04)
 
++++++++++++++++++++++++++++++++++++++++++++++++++++++++++++++++++++++++++++++++
+ SCF iteration number :    6                                                  +
++++++++++++++++++++++++++++++++++++++++++++++++++++++++++++++++++++++++++++++++
 Total energy                               :     -3747.47873876
 _______________________________________________________________
 Fermi energy                               :         0.39976668
 Kinetic energy                             :      3862.88956086
 Coulomb energy                             :     -7481.45319524
 Exchange energy                            :      -125.93031051
 Correlation energy                         :        -2.98479386
 
 DOS at Fermi energy (states/Ha/cell)       :         0.00000000
 
 Electron charges :
     core                                   :        14.00000000
     core leakage                           :         0.00000024
     valence                                :        42.00000000
     interstitial                           :         5.31287654
     charge in muffin-tin spheres :
                  atom     1    Zr          :        36.24346346
                  atom     2     O          :         7.22183000
                  atom     3     O          :         7.22183000
     total charge in muffin-tins            :        50.68712346
     total charge                           :        56.00000000
 
 Estimated fundamental gap                  :         0.11971203
        valence-band maximum at   13      0.5000  0.5000  0.0000
     conduction-band minimum at    1      0.0000  0.0000  0.0000
 
 Wall time (seconds)                        :       168.79
 
 RMS change in effective potential (target) :  0.333236E-02  ( 0.100000E-05)
 Absolute change in total energy   (target) :   1.74867      ( 0.100000E-05)
 Charge distance                   (target) :  0.156591E-02  ( 0.100000E-04)
 
++++++++++++++++++++++++++++++++++++++++++++++++++++++++++++++++++++++++++++++++
+ SCF iteration number :    7                                                  +
++++++++++++++++++++++++++++++++++++++++++++++++++++++++++++++++++++++++++++++++
 Total energy                               :     -3747.53847471
 _______________________________________________________________
 Fermi energy                               :         0.39933520
 Kinetic energy                             :      3862.97581249
 Coulomb energy                             :     -7481.58821514
 Exchange energy                            :      -125.94153456
 Correlation energy                         :        -2.98453750
 
 DOS at Fermi energy (states/Ha/cell)       :         0.00000000
 
 Electron charges :
     core                                   :        14.00000000
     core leakage                           :         0.00000024
     valence                                :        42.00000000
     interstitial                           :         5.30223276
     charge in muffin-tin spheres :
                  atom     1    Zr          :        36.23406017
                  atom     2     O          :         7.23185354
                  atom     3     O          :         7.23185354
     total charge in muffin-tins            :        50.69776724
     total charge                           :        56.00000000
 
 Estimated fundamental gap                  :         0.12199177
        valence-band maximum at   13      0.5000  0.5000  0.0000
     conduction-band minimum at    1      0.0000  0.0000  0.0000
 
 Wall time (seconds)                        :       190.01
 
 RMS change in effective potential (target) :  0.154660E-03  ( 0.100000E-05)
 Absolute change in total energy   (target) :  0.597360E-01  ( 0.100000E-05)
 Charge distance                   (target) :  0.750270E-03  ( 0.100000E-04)
 
++++++++++++++++++++++++++++++++++++++++++++++++++++++++++++++++++++++++++++++++
+ SCF iteration number :    8                                                  +
++++++++++++++++++++++++++++++++++++++++++++++++++++++++++++++++++++++++++++++++
 Total energy                               :     -3747.55064662
 _______________________________________________________________
 Fermi energy                               :         0.39927796
 Kinetic energy                             :      3862.96173178
 Coulomb energy                             :     -7481.58620911
 Exchange energy                            :      -125.94162969
 Correlation energy                         :        -2.98453961
 
 DOS at Fermi energy (states/Ha/cell)       :         0.00000000
 
 Electron charges :
     core                                   :        14.00000000
     core leakage                           :         0.00000024
     valence                                :        42.00000000
     interstitial                           :         5.30197597
     charge in muffin-tin spheres :
                  atom     1    Zr          :        36.23447093
                  atom     2     O          :         7.23177655
                  atom     3     O          :         7.23177655
     total charge in muffin-tins            :        50.69802403
     total charge                           :        56.00000000
 
 Estimated fundamental gap                  :         0.12193639
        valence-band maximum at   13      0.5000  0.5000  0.0000
     conduction-band minimum at    1      0.0000  0.0000  0.0000
 
 Wall time (seconds)                        :       209.79
 
 RMS change in effective potential (target) :  0.521100E-04  ( 0.100000E-05)
 Absolute change in total energy   (target) :  0.121719E-01  ( 0.100000E-05)
 Charge distance                   (target) :  0.172529E-04  ( 0.100000E-04)
 
++++++++++++++++++++++++++++++++++++++++++++++++++++++++++++++++++++++++++++++++
+ SCF iteration number :    9                                                  +
++++++++++++++++++++++++++++++++++++++++++++++++++++++++++++++++++++++++++++++++
 Total energy                               :     -3747.54550422
 _______________________________________________________________
 Fermi energy                               :         0.39930518
 Kinetic energy                             :      3862.96693089
 Coulomb energy                             :     -7481.58636851
 Exchange energy                            :      -125.94152644
 Correlation energy                         :        -2.98454016
 
 DOS at Fermi energy (states/Ha/cell)       :         0.00000000
 
 Electron charges :
     core                                   :        14.00000000
     core leakage                           :         0.00000024
     valence                                :        42.00000000
     interstitial                           :         5.30214446
     charge in muffin-tin spheres :
                  atom     1    Zr          :        36.23432998
                  atom     2     O          :         7.23176278
                  atom     3     O          :         7.23176278
     total charge in muffin-tins            :        50.69785554
     total charge                           :        56.00000000
 
 Estimated fundamental gap                  :         0.12195399
        valence-band maximum at   13      0.5000  0.5000  0.0000
     conduction-band minimum at    1      0.0000  0.0000  0.0000
 
 Wall time (seconds)                        :       228.21
 
 RMS change in effective potential (target) :  0.489935E-05  ( 0.100000E-05)
 Absolute change in total energy   (target) :  0.514240E-02  ( 0.100000E-05)
 Charge distance                   (target) :  0.820782E-05  ( 0.100000E-04)
 
++++++++++++++++++++++++++++++++++++++++++++++++++++++++++++++++++++++++++++++++
+ SCF iteration number :   10                                                  +
++++++++++++++++++++++++++++++++++++++++++++++++++++++++++++++++++++++++++++++++
 Total energy                               :     -3747.54495268
 _______________________________________________________________
 Fermi energy                               :         0.39930672
 Kinetic energy                             :      3862.96725925
 Coulomb energy                             :     -7481.58615294
 Exchange energy                            :      -125.94151902
 Correlation energy                         :        -2.98453997
 
 DOS at Fermi energy (states/Ha/cell)       :         0.00000000
 
 Electron charges :
     core                                   :        14.00000000
     core leakage                           :         0.00000024
     valence                                :        42.00000000
     interstitial                           :         5.30214509
     charge in muffin-tin spheres :
                  atom     1    Zr          :        36.23431879
                  atom     2     O          :         7.23176806
                  atom     3     O          :         7.23176806
     total charge in muffin-tins            :        50.69785491
     total charge                           :        56.00000000
 
 Estimated fundamental gap                  :         0.12195594
        valence-band maximum at   13      0.5000  0.5000  0.0000
     conduction-band minimum at    1      0.0000  0.0000  0.0000
 
 Wall time (seconds)                        :       250.36
 
 RMS change in effective potential (target) :  0.149943E-05  ( 0.100000E-05)
 Absolute change in total energy   (target) :  0.551546E-03  ( 0.100000E-05)
 Charge distance                   (target) :  0.504204E-06  ( 0.100000E-04)
 
++++++++++++++++++++++++++++++++++++++++++++++++++++++++++++++++++++++++++++++++
+ SCF iteration number :   11                                                  +
++++++++++++++++++++++++++++++++++++++++++++++++++++++++++++++++++++++++++++++++
 Total energy                               :     -3747.54502230
 _______________________________________________________________
 Fermi energy                               :         0.39930679
 Kinetic energy                             :      3862.96719496
 Coulomb energy                             :     -7481.58616068
 Exchange energy                            :      -125.94151650
 Correlation energy                         :        -2.98454009
 
 DOS at Fermi energy (states/Ha/cell)       :         0.00000000
 
 Electron charges :
     core                                   :        14.00000000
     core leakage                           :         0.00000024
     valence                                :        42.00000000
     interstitial                           :         5.30214930
     charge in muffin-tin spheres :
                  atom     1    Zr          :        36.23432378
                  atom     2     O          :         7.23176346
                  atom     3     O          :         7.23176346
     total charge in muffin-tins            :        50.69785070
     total charge                           :        56.00000000
 
 Estimated fundamental gap                  :         0.12195478
        valence-band maximum at   13      0.5000  0.5000  0.0000
     conduction-band minimum at    1      0.0000  0.0000  0.0000
 
 Wall time (seconds)                        :       270.87
 
 RMS change in effective potential (target) :  0.607966E-07  ( 0.100000E-05)
 Absolute change in total energy   (target) :  0.696258E-04  ( 0.100000E-05)
 Charge distance                   (target) :  0.334391E-06  ( 0.100000E-04)
 
++++++++++++++++++++++++++++++++++++++++++++++++++++++++++++++++++++++++++++++++
+ SCF iteration number :   12                                                  +
++++++++++++++++++++++++++++++++++++++++++++++++++++++++++++++++++++++++++++++++
 Total energy                               :     -3747.54502379
 _______________________________________________________________
 Fermi energy                               :         0.39930678
 Kinetic energy                             :      3862.96719482
 Coulomb energy                             :     -7481.58616183
 Exchange energy                            :      -125.94151669
 Correlation energy                         :        -2.98454009
 
 DOS at Fermi energy (states/Ha/cell)       :         0.00000000
 
 Electron charges :
     core                                   :        14.00000000
     core leakage                           :         0.00000024
     valence                                :        42.00000000
     interstitial                           :         5.30214910
     charge in muffin-tin spheres :
                  atom     1    Zr          :        36.23432362
                  atom     2     O          :         7.23176364
                  atom     3     O          :         7.23176364
     total charge in muffin-tins            :        50.69785090
     total charge                           :        56.00000000
 
 Estimated fundamental gap                  :         0.12195482
        valence-band maximum at   13      0.5000  0.5000  0.0000
     conduction-band minimum at    1      0.0000  0.0000  0.0000
 
 Wall time (seconds)                        :       292.93
 
 RMS change in effective potential (target) :  0.567147E-08  ( 0.100000E-05)
 Absolute change in total energy   (target) :  0.148976E-05  ( 0.100000E-05)
 Charge distance                   (target) :  0.136548E-07  ( 0.100000E-04)
 
++++++++++++++++++++++++++++++++++++++++++++++++++++++++++++++++++++++++++++++++
+ SCF iteration number :   13                                                  +
++++++++++++++++++++++++++++++++++++++++++++++++++++++++++++++++++++++++++++++++
 Total energy                               :     -3747.54502281
 _______________________________________________________________
 Fermi energy                               :         0.39930679
 Kinetic energy                             :      3862.96719542
 Coulomb energy                             :     -7481.58616147
 Exchange energy                            :      -125.94151667
 Correlation energy                         :        -2.98454009
 
 DOS at Fermi energy (states/Ha/cell)       :         0.00000000
 
 Electron charges :
     core                                   :        14.00000000
     core leakage                           :         0.00000024
     valence                                :        42.00000000
     interstitial                           :         5.30214911
     charge in muffin-tin spheres :
                  atom     1    Zr          :        36.23432360
                  atom     2     O          :         7.23176364
                  atom     3     O          :         7.23176364
     total charge in muffin-tins            :        50.69785089
     total charge                           :        56.00000000
 
 Estimated fundamental gap                  :         0.12195483
        valence-band maximum at   13      0.5000  0.5000  0.0000
     conduction-band minimum at    1      0.0000  0.0000  0.0000
 
 Wall time (seconds)                        :       314.44
 
 RMS change in effective potential (target) :  0.172740E-07  ( 0.100000E-05)
 Absolute change in total energy   (target) :  0.980791E-06  ( 0.100000E-05)
 Charge distance                   (target) :  0.617199E-09  ( 0.100000E-04)
 
++++++++++++++++++++++++++++++++++++++++++++++++++++++++++++++++++++++++++++++++
+ SCF iteration number :   14                                                  +
++++++++++++++++++++++++++++++++++++++++++++++++++++++++++++++++++++++++++++++++
 Total energy                               :     -3747.54502272
 _______________________________________________________________
 Fermi energy                               :         0.39930678
 Kinetic energy                             :      3862.96719545
 Coulomb energy                             :     -7481.58616142
 Exchange energy                            :      -125.94151667
 Correlation energy                         :        -2.98454009
 
 DOS at Fermi energy (states/Ha/cell)       :         0.00000000
 
 Electron charges :
     core                                   :        14.00000000
     core leakage                           :         0.00000024
     valence                                :        42.00000000
     interstitial                           :         5.30214911
     charge in muffin-tin spheres :
                  atom     1    Zr          :        36.23432361
                  atom     2     O          :         7.23176364
                  atom     3     O          :         7.23176364
     total charge in muffin-tins            :        50.69785089
     total charge                           :        56.00000000
 
 Estimated fundamental gap                  :         0.12195483
        valence-band maximum at   13      0.5000  0.5000  0.0000
     conduction-band minimum at    1      0.0000  0.0000  0.0000
 
 Wall time (seconds)                        :       336.28
 
 RMS change in effective potential (target) :  0.348869E-08  ( 0.100000E-05)
 Absolute change in total energy   (target) :  0.879263E-07  ( 0.100000E-05)
 Charge distance                   (target) :  0.202692E-09  ( 0.100000E-04)
                                                                                
++++++++++++++++++++++++++++++++++++++++++++++++++++++++++++++++++++++++++++++++
| Convergency criteria checked for the last 2 iterations                       +
| Convergence targets achieved. Performing final SCF iteration                 +
++++++++++++++++++++++++++++++++++++++++++++++++++++++++++++++++++++++++++++++++
 Total energy                               :     -3747.54502280
 _______________________________________________________________
 Fermi energy                               :         0.39930678
 Kinetic energy                             :      3862.96719540
 Coulomb energy                             :     -7481.58616144
 Exchange energy                            :      -125.94151666
 Correlation energy                         :        -2.98454009
 
 DOS at Fermi energy (states/Ha/cell)       :         0.00000000
 
 Electron charges :
     core                                   :        14.00000000
     core leakage                           :         0.00000024
     valence                                :        42.00000000
     interstitial                           :         5.30214911
     charge in muffin-tin spheres :
                  atom     1    Zr          :        36.23432361
                  atom     2     O          :         7.23176364
                  atom     3     O          :         7.23176364
     total charge in muffin-tins            :        50.69785089
     total charge                           :        56.00000000
 
 Estimated fundamental gap                  :         0.12195483
        valence-band maximum at   13      0.5000  0.5000  0.0000
     conduction-band minimum at    1      0.0000  0.0000  0.0000
 
++++++++++++++++++++++++++++++++++++++++++++++++++++++++++++++++++++++++++++++++
+ Self-consistent loop stopped                                                 +
++++++++++++++++++++++++++++++++++++++++++++++++++++++++++++++++++++++++++++++++
 STATE.OUT is written
 
********************************************************************************
* Groundstate module stopped                                                   *
********************************************************************************
 
 Total time spent (seconds)                 :       356.43
================================================================================
| EXCITING NITROGEN-14 stopped                                                 =
================================================================================
