6
Lattice="3.168394160510246 -3.3524146226426544e-10 0.0 -1.5841970805453853 2.7439098312114987 0.0 6.365167633892244e-18 -3.748609667104484e-30 39.58711265" Properties=species:S:1:pos:R:3:initial_magmoms:R:1:forces:R:3:stress:R:1:magmoms:R:1 energy="_JSON -45.59907058812011" dipole="6.290974558289755 -3.632095787259708 -0.0016225673597743656" magmom="_JSON 0.0" pbc="T T F"
W       -0.00000000       0.00000000      16.68421565       0.00000000      -0.00000000       0.00000000       0.00351605      -0.00001769       0.00000000
S        1.58419708       0.91463661      18.25982194       0.00000000       0.00000000      -0.00000000      -0.00749304      -0.00001769       0.00000000
S        1.58419708       0.91463661      15.10652203       0.00000000       0.00000000      -0.00000000       0.00472296       0.00015428       0.00000000
Mo       1.58419708       0.91463661      22.90251866       0.00000000       0.00000000      -0.00000000      -0.00693616      -0.00000000       0.00000000
S       -0.00000000       0.00000000      24.46831689       0.00000000      -0.00000000       0.00000000       0.00363575       0.00000000       0.00000000
S       -0.00000000       0.00000000      21.33906353       0.00000000      -0.00000000       0.00000000       0.00265090       0.00000000       0.00000000
